LAMMPS data file - C-S-H System

200 atoms
4 atom types
326 bonds
1 bond types
325 angles
1 angle types

-15.0 15.0 xlo xhi
-4.0 4.0 ylo yhi
-4.0 4.0 zlo zhi

Masses

1 40.078
2 28.085
3 15.999
4 1.008

Bond Coeffs

1 500.0 1.0

Angle Coeffs

1 100.0 109.47

Atoms # full

1 2 4 0.4 8.72599 -1.60413 2.08745
2 2 4 0.4 14.32243 3.18321 2.33049
3 2 4 0.4 5.07381 -3.52323 -3.26312
4 2 4 0.4 -8.16824 -0.78290 -3.16394
5 2 4 0.4 3.04846 -1.98004 -0.61926
6 2 4 0.4 8.51517 -1.39306 1.99716
7 2 4 0.4 14.39390 4.01057 2.31286
8 2 4 0.4 5.62434 -4.03716 -2.86768
9 2 4 0.4 -8.40329 -1.11427 -3.22853
10 2 4 0.4 2.06572 -1.78912 -0.98691
11 2 4 0.4 8.42582 -1.46237 2.95156
12 2 4 0.4 14.13546 3.80879 2.44365
13 2 4 0.4 5.30149 -4.19700 -2.59610
14 2 4 0.4 -7.88603 -0.81818 -2.61940
15 2 4 0.4 2.48768 -1.68130 -0.31217
16 2 4 0.4 9.15269 -1.38586 2.59533
17 2 4 0.4 14.37374 3.55811 2.02219
18 2 4 0.4 4.98766 -4.17730 -3.28546
19 2 4 0.4 -7.73106 -1.01783 -2.59216
20 2 4 0.4 2.08151 -1.56254 -1.11096
21 2 4 0.4 8.75862 -1.16323 2.45079
22 2 4 0.4 15.08989 3.22804 1.77645
23 2 4 0.4 5.15246 -4.20794 -2.74037
24 2 4 0.4 -7.95826 -0.52532 -3.11817
25 2 4 0.4 2.27888 -1.39115 -0.63308
26 2 4 0.4 8.81508 -1.13386 2.68643
27 2 4 0.4 14.75502 3.99741 2.29744
28 2 4 0.4 5.41483 -3.56252 -2.71902
29 2 4 0.4 -7.62802 -0.25310 -3.08872
30 2 4 0.4 2.74200 -1.06135 -0.78299
31 2 4 0.4 8.98707 -1.55262 2.05585
32 2 4 0.4 14.93271 3.67280 2.11239
33 2 4 0.4 5.19301 -3.41578 -3.07657
34 2 4 0.4 -7.86517 -0.78717 -3.07157
35 2 4 0.4 2.41116 -1.99157 -1.11991
36 2 4 0.4 8.39858 -1.39734 2.83474
37 2 4 0.4 15.10559 3.69581 2.17024
38 2 4 0.4 5.20823 -4.14989 -2.54571
39 2 4 0.4 -8.25570 -0.44116 -2.41363
40 2 4 0.4 2.12733 -1.11270 -0.39660
41 2 4 0.4 8.91097 -1.18290 2.30487
42 2 4 0.4 14.59800 3.13212 2.68478
43 2 4 0.4 5.31334 -4.13080 -2.91967
44 2 4 0.4 -8.33176 -0.49176 -3.08301
45 2 4 0.4 2.85018 -1.57497 -0.72858
46 2 4 0.4 8.68754 -1.39292 2.78954
47 2 4 0.4 14.64646 3.08612 2.45092
48 2 4 0.4 5.41498 -4.01386 -3.04861
49 2 4 0.4 -7.73360 -0.89945 -3.08629
50 2 4 0.4 2.94197 -1.76948 -1.10589
51 2 4 0.4 8.70463 -1.74159 2.52916
52 2 4 0.4 14.48969 3.12714 1.97619
53 2 4 0.4 5.48387 -4.10966 -2.66085
54 2 4 0.4 -8.10256 -0.46552 -2.47176
55 2 4 0.4 2.57384 -1.79245 -0.63461
56 2 4 0.4 8.53434 -1.87288 2.17795
57 2 4 0.4 14.48997 3.62450 2.22505
58 2 4 0.4 5.19748 -3.97964 -2.97995
59 2 4 0.4 -8.54266 -0.72197 -2.37662
60 2 4 0.4 2.37515 -1.49196 -0.73936
61 1 3 -0.8 1.41774 2.41863 -2.20268
62 1 3 -0.8 -7.28937 -1.52838 -0.88037
63 1 3 -0.8 -1.68309 -3.56906 0.85706
64 1 3 -0.8 -3.74452 2.46980 -3.04111
65 1 3 -0.8 -14.20340 -2.24043 -0.09691
66 1 3 -0.8 -13.88534 1.12958 -2.48589
67 1 2 4.0 2.11561 0.18352 2.17666
68 1 3 -0.8 4.94591 2.43715 -2.97457
69 1 3 -0.8 -13.22198 -3.67273 -1.44474
70 1 3 -0.8 -7.17805 -0.43158 3.12407
71 1 3 -0.8 -2.43062 0.66248 3.07666
72 1 2 4.0 7.03998 3.29662 -1.30482
73 1 3 -0.8 -11.57328 -3.87559 -1.33753
74 1 2 4.0 -4.26011 -3.88903 2.21360
75 1 2 4.0 10.01318 1.60543 -2.16569
76 1 3 -0.8 1.47518 3.93862 3.49030
77 1 3 -0.8 12.22591 0.42100 0.36214
78 1 2 4.0 1.70562 0.59921 1.91058
79 1 3 -0.8 -12.46511 -1.36301 -0.37760
80 1 3 -0.8 -12.77419 -0.31514 1.46608
81 1 1 2.0 9.20681 -2.06800 3.53018
82 1 2 4.0 8.50061 -2.51787 0.85306
83 1 1 2.0 3.50258 2.78691 -3.70101
84 1 3 -0.8 -9.47105 1.28019 -3.64413
85 1 1 2.0 0.46241 -1.27771 -0.52587
86 1 2 4.0 -0.32731 3.91480 -2.29543
87 1 1 2.0 -9.74185 3.21633 2.33203
88 1 3 -0.8 -9.97842 1.86882 -1.76675
89 1 1 2.0 -5.70106 1.01622 3.22024
90 1 3 -0.8 -1.05623 0.81509 1.56538
91 1 2 4.0 3.74671 2.86997 -3.86012
92 1 3 -0.8 2.84206 -3.40914 -3.34352
93 1 3 -0.8 -11.54596 -2.42302 0.39961
94 1 3 -0.8 -1.69839 2.32461 -2.96271
95 1 1 2.0 8.74576 -2.55029 -0.82298
96 1 3 -0.8 -12.15407 -3.71072 -2.15280
97 1 3 -0.8 -8.70453 0.46742 0.61726
98 1 3 -0.8 -4.36873 3.39095 0.81439
99 1 3 -0.8 13.08941 1.88317 -3.20913
100 1 2 4.0 1.78964 -1.93555 -0.48008
101 1 2 4.0 -12.90882 1.85528 -2.52038
102 1 3 -0.8 -8.21164 -0.84176 1.92120
103 1 3 -0.8 7.83135 1.98758 -3.80331
104 1 3 -0.8 -0.56644 2.48372 -1.68217
105 1 1 2.0 11.42073 -3.42615 3.96941
106 1 3 -0.8 14.90143 2.97621 -3.06647
107 1 3 -0.8 -5.70749 -2.02643 -1.49920
108 1 2 4.0 5.18979 -0.09393 -3.02316
109 1 3 -0.8 -2.90474 2.67473 2.98765
110 1 2 4.0 8.68968 -1.06209 -2.58947
111 1 3 -0.8 5.95953 -3.05794 -3.53472
112 1 2 4.0 5.41109 -0.27251 -0.33404
113 1 3 -0.8 3.91264 3.92303 -3.98474
114 1 3 -0.8 -1.59271 -2.73834 -3.60937
115 1 2 4.0 10.76053 0.17234 1.97862
116 1 3 -0.8 13.48803 1.53958 2.58074
117 1 3 -0.8 -3.16864 -0.13762 3.90039
118 1 2 4.0 -4.00026 1.73101 2.49449
119 1 1 2.0 14.34215 -3.03169 -0.08770
120 1 3 -0.8 1.87604 0.88955 -0.99324
121 1 3 -0.8 -4.15086 2.23283 -2.52243
122 1 3 -0.8 -4.72010 2.86910 -2.62832
123 1 3 -0.8 -9.75086 -2.63032 -3.97893
124 1 2 4.0 -2.92417 3.46663 -2.23682
125 1 3 -0.8 14.00995 2.03727 0.21643
126 1 1 2.0 -5.08981 -3.05288 -2.00907
127 1 3 -0.8 5.19710 -0.49752 -3.83816
128 1 3 -0.8 3.21428 -0.51103 0.61448
129 1 1 2.0 3.88510 3.13464 0.73487
130 1 3 -0.8 -6.90871 3.38069 2.32009
131 1 3 -0.8 13.35044 -3.50449 -2.36688
132 1 3 -0.8 -7.63095 0.25482 -0.38415
133 1 3 -0.8 -1.26397 -3.71334 1.79172
134 1 3 -0.8 -4.00337 3.77870 1.75999
135 1 2 4.0 -2.39197 1.23218 -1.52479
136 1 3 -0.8 10.48410 3.71527 -0.95222
137 1 1 2.0 -5.75500 2.76638 0.01231
138 1 3 -0.8 10.87451 0.49075 -2.11518
139 1 1 2.0 13.53350 -0.10562 2.46509
140 1 1 2.0 7.64455 1.34694 -2.15156
141 1 3 -0.8 12.64568 -1.05624 3.15662
142 1 3 -0.8 2.23553 -1.82883 3.02346
143 1 1 2.0 -4.60745 3.91782 -0.55145
144 1 1 2.0 -5.06894 1.05580 -0.79272
145 1 3 -0.8 -7.99944 -1.55127 -3.39857
146 1 3 -0.8 13.35405 -0.99996 1.76918
147 1 3 -0.8 -11.12321 -0.30779 -0.29110
148 1 3 -0.8 11.51520 2.35067 -3.96586
149 1 3 -0.8 1.77156 3.04564 -3.17351
150 1 3 -0.8 2.56336 -1.64202 0.56458
151 1 3 -0.8 -8.18734 2.79110 0.11585
152 1 3 -0.8 7.70968 2.15122 -0.36835
153 1 3 -0.8 2.31649 3.49212 -0.82975
154 1 1 2.0 9.65830 -0.46469 2.46383
155 1 3 -0.8 14.53046 -2.57295 -1.20835
156 1 3 -0.8 -4.89051 3.08508 3.21219
157 1 1 2.0 11.11326 -3.95343 -2.60791
158 1 2 4.0 10.88404 -0.54227 2.32596
159 1 3 -0.8 -14.65691 1.39727 2.72107
160 1 3 -0.8 -13.64443 -0.17540 -2.96191
161 1 3 -0.8 10.13614 -0.78665 3.67519
162 1 1 2.0 9.06006 -2.96844 -2.71456
163 1 3 -0.8 14.82275 -0.47596 0.00919
164 1 3 -0.8 12.37271 -0.16516 1.47866
165 1 1 2.0 13.63372 -3.41593 2.80285
166 1 3 -0.8 -14.09247 0.72102 0.19156
167 1 3 -0.8 11.85760 2.95381 1.21672
168 1 3 -0.8 -4.22150 -0.80839 0.89422
169 1 3 -0.8 -4.88783 2.36778 -2.58329
170 1 1 2.0 2.90635 -1.84541 3.22442
171 1 2 4.0 -9.08779 2.35513 -3.93526
172 1 3 -0.8 -8.84559 1.21002 0.33329
173 1 3 -0.8 11.77678 1.73190 3.86573
174 1 3 -0.8 5.57128 3.02979 -3.12800
175 1 3 -0.8 -0.98291 1.92196 -2.67009
176 1 3 -0.8 -12.01675 -1.44207 0.07799
177 1 3 -0.8 1.58166 3.12196 -3.70785
178 1 3 -0.8 -11.51220 -2.77138 2.19024
179 1 2 4.0 1.04615 1.29372 -0.96832
180 1 3 -0.8 -4.00112 -2.31681 -1.61367
181 1 3 -0.8 -5.16033 -0.39791 0.08920
182 1 2 4.0 14.77900 -2.99967 1.97896
183 1 1 2.0 -1.20205 -3.40569 -0.74858
184 1 1 2.0 -13.04036 0.14202 3.18531
185 1 1 2.0 -2.36782 -3.36078 3.12073
186 1 3 -0.8 2.54669 3.32914 -1.28433
187 1 3 -0.8 6.43719 0.03515 -1.17965
188 1 3 -0.8 -11.05789 1.77140 1.71729
189 1 3 -0.8 6.63346 3.87053 -1.44955
190 1 2 4.0 5.63265 2.52545 -2.89116
191 1 3 -0.8 13.92168 -3.50610 -3.39591
192 1 2 4.0 3.98885 0.21015 1.16604
193 1 3 -0.8 13.00961 2.22256 1.43211
194 1 3 -0.8 10.28991 1.53903 0.42206
195 1 2 4.0 11.55814 -3.21840 -1.14539
196 1 1 2.0 7.53643 2.93167 3.30235
197 1 1 2.0 -0.73401 1.94698 2.48265
198 1 3 -0.8 2.23138 0.12970 1.94549
199 1 3 -0.8 3.20505 -1.94083 -0.56996
200 1 3 -0.8 3.57013 1.86631 -0.22844

Bonds

1 1 1 6
2 1 1 11
3 1 1 16
4 1 1 21
5 1 1 26
6 1 1 31
7 1 1 36
8 1 1 41
9 1 1 46
10 1 1 51
11 1 1 56
12 1 2 7
13 1 2 12
14 1 2 17
15 1 2 22
16 1 2 27
17 1 2 32
18 1 2 37
19 1 2 42
20 1 2 47
21 1 2 52
22 1 2 57
23 1 3 8
24 1 3 13
25 1 3 18
26 1 3 23
27 1 3 28
28 1 3 33
29 1 3 38
30 1 3 43
31 1 3 48
32 1 3 53
33 1 3 58
34 1 4 9
35 1 4 14
36 1 4 19
37 1 4 24
38 1 4 29
39 1 4 34
40 1 4 39
41 1 4 44
42 1 4 49
43 1 4 54
44 1 4 59
45 1 5 10
46 1 5 15
47 1 5 20
48 1 5 25
49 1 5 30
50 1 5 35
51 1 5 45
52 1 5 50
53 1 5 55
54 1 5 60
55 1 6 11
56 1 6 16
57 1 6 21
58 1 6 26
59 1 6 31
60 1 6 36
61 1 6 41
62 1 6 46
63 1 6 51
64 1 6 56
65 1 7 12
66 1 7 17
67 1 7 22
68 1 7 27
69 1 7 32
70 1 7 37
71 1 7 42
72 1 7 47
73 1 7 52
74 1 7 57
75 1 8 13
76 1 8 18
77 1 8 23
78 1 8 28
79 1 8 33
80 1 8 38
81 1 8 43
82 1 8 48
83 1 8 53
84 1 8 58
85 1 9 14
86 1 9 19
87 1 9 24
88 1 9 29
89 1 9 34
90 1 9 39
91 1 9 44
92 1 9 49
93 1 9 54
94 1 9 59
95 1 10 15
96 1 10 20
97 1 10 25
98 1 10 30
99 1 10 35
100 1 10 40
101 1 10 45
102 1 10 50
103 1 10 55
104 1 10 60
105 1 11 16
106 1 11 21
107 1 11 26
108 1 11 31
109 1 11 36
110 1 11 41
111 1 11 46
112 1 11 51
113 1 11 56
114 1 12 17
115 1 12 27
116 1 12 32
117 1 12 37
118 1 12 42
119 1 12 47
120 1 12 52
121 1 12 57
122 1 13 18
123 1 13 23
124 1 13 28
125 1 13 33
126 1 13 38
127 1 13 43
128 1 13 48
129 1 13 53
130 1 13 58
131 1 14 19
132 1 14 24
133 1 14 29
134 1 14 34
135 1 14 39
136 1 14 44
137 1 14 49
138 1 14 54
139 1 14 59
140 1 15 20
141 1 15 25
142 1 15 30
143 1 15 35
144 1 15 40
145 1 15 45
146 1 15 50
147 1 15 55
148 1 15 60
149 1 16 21
150 1 16 26
151 1 16 31
152 1 16 36
153 1 16 41
154 1 16 46
155 1 16 51
156 1 16 56
157 1 17 22
158 1 17 27
159 1 17 32
160 1 17 37
161 1 17 42
162 1 17 47
163 1 17 52
164 1 17 57
165 1 18 23
166 1 18 28
167 1 18 33
168 1 18 38
169 1 18 43
170 1 18 48
171 1 18 53
172 1 18 58
173 1 19 24
174 1 19 29
175 1 19 34
176 1 19 39
177 1 19 44
178 1 19 49
179 1 19 54
180 1 19 59
181 1 20 25
182 1 20 30
183 1 20 35
184 1 20 40
185 1 20 45
186 1 20 50
187 1 20 55
188 1 20 60
189 1 21 26
190 1 21 31
191 1 21 36
192 1 21 41
193 1 21 46
194 1 21 51
195 1 21 56
196 1 22 27
197 1 22 32
198 1 22 37
199 1 22 42
200 1 22 47
201 1 22 52
202 1 22 57
203 1 23 28
204 1 23 33
205 1 23 38
206 1 23 43
207 1 23 48
208 1 23 53
209 1 23 58
210 1 24 29
211 1 24 34
212 1 24 39
213 1 24 44
214 1 24 49
215 1 24 54
216 1 24 59
217 1 25 30
218 1 25 35
219 1 25 40
220 1 25 45
221 1 25 50
222 1 25 55
223 1 25 60
224 1 26 31
225 1 26 36
226 1 26 41
227 1 26 46
228 1 26 51
229 1 26 56
230 1 27 32
231 1 27 37
232 1 27 42
233 1 27 47
234 1 27 52
235 1 27 57
236 1 28 33
237 1 28 38
238 1 28 43
239 1 28 48
240 1 28 53
241 1 28 58
242 1 29 34
243 1 29 39
244 1 29 44
245 1 29 49
246 1 29 54
247 1 30 35
248 1 30 40
249 1 30 45
250 1 30 50
251 1 30 55
252 1 30 60
253 1 31 36
254 1 31 41
255 1 31 46
256 1 31 51
257 1 31 56
258 1 32 37
259 1 32 42
260 1 32 47
261 1 32 52
262 1 32 57
263 1 33 38
264 1 33 43
265 1 33 48
266 1 33 53
267 1 33 58
268 1 34 39
269 1 34 44
270 1 34 49
271 1 34 54
272 1 34 59
273 1 35 40
274 1 35 45
275 1 35 50
276 1 35 55
277 1 35 60
278 1 36 41
279 1 36 46
280 1 36 51
281 1 36 56
282 1 37 42
283 1 37 47
284 1 37 52
285 1 37 57
286 1 38 43
287 1 38 48
288 1 38 53
289 1 38 58
290 1 39 44
291 1 39 49
292 1 39 54
293 1 39 59
294 1 40 45
295 1 40 55
296 1 40 60
297 1 41 46
298 1 41 51
299 1 41 56
300 1 42 47
301 1 42 52
302 1 42 57
303 1 43 48
304 1 43 53
305 1 43 58
306 1 44 49
307 1 44 54
308 1 44 59
309 1 45 50
310 1 45 55
311 1 45 60
312 1 46 51
313 1 46 56
314 1 47 52
315 1 47 57
316 1 48 53
317 1 48 58
318 1 49 54
319 1 49 59
320 1 50 55
321 1 50 60
322 1 51 56
323 1 52 57
324 1 53 58
325 1 54 59
326 1 55 60

Angles

1 1 1 6 11
2 1 1 11 16
3 1 1 16 21
4 1 1 21 26
5 1 1 26 31
6 1 1 31 36
7 1 1 36 41
8 1 1 41 46
9 1 1 46 51
10 1 1 51 56
11 1 1 56 7
12 1 2 7 12
13 1 2 12 17
14 1 2 17 22
15 1 2 22 27
16 1 2 27 32
17 1 2 32 37
18 1 2 37 42
19 1 2 42 47
20 1 2 47 52
21 1 2 52 57
22 1 2 57 8
23 1 3 8 13
24 1 3 13 18
25 1 3 18 23
26 1 3 23 28
27 1 3 28 33
28 1 3 33 38
29 1 3 38 43
30 1 3 43 48
31 1 3 48 53
32 1 3 53 58
33 1 3 58 9
34 1 4 9 14
35 1 4 14 19
36 1 4 19 24
37 1 4 24 29
38 1 4 29 34
39 1 4 34 39
40 1 4 39 44
41 1 4 44 49
42 1 4 49 54
43 1 4 54 59
44 1 4 59 10
45 1 5 10 15
46 1 5 15 20
47 1 5 20 25
48 1 5 25 30
49 1 5 30 35
50 1 5 35 45
51 1 5 45 50
52 1 5 50 55
53 1 5 55 60
54 1 5 60 11
55 1 6 11 16
56 1 6 16 21
57 1 6 21 26
58 1 6 26 31
59 1 6 31 36
60 1 6 36 41
61 1 6 41 46
62 1 6 46 51
63 1 6 51 56
64 1 6 56 12
65 1 7 12 17
66 1 7 17 22
67 1 7 22 27
68 1 7 27 32
69 1 7 32 37
70 1 7 37 42
71 1 7 42 47
72 1 7 47 52
73 1 7 52 57
74 1 7 57 13
75 1 8 13 18
76 1 8 18 23
77 1 8 23 28
78 1 8 28 33
79 1 8 33 38
80 1 8 38 43
81 1 8 43 48
82 1 8 48 53
83 1 8 53 58
84 1 8 58 14
85 1 9 14 19
86 1 9 19 24
87 1 9 24 29
88 1 9 29 34
89 1 9 34 39
90 1 9 39 44
91 1 9 44 49
92 1 9 49 54
93 1 9 54 59
94 1 9 59 15
95 1 10 15 20
96 1 10 20 25
97 1 10 25 30
98 1 10 30 35
99 1 10 35 40
100 1 10 40 45
101 1 10 45 50
102 1 10 50 55
103 1 10 55 60
104 1 10 60 16
105 1 11 16 21
106 1 11 21 26
107 1 11 26 31
108 1 11 31 36
109 1 11 36 41
110 1 11 41 46
111 1 11 46 51
112 1 11 51 56
113 1 11 56 17
114 1 12 17 27
115 1 12 27 32
116 1 12 32 37
117 1 12 37 42
118 1 12 42 47
119 1 12 47 52
120 1 12 52 57
121 1 12 57 18
122 1 13 18 23
123 1 13 23 28
124 1 13 28 33
125 1 13 33 38
126 1 13 38 43
127 1 13 43 48
128 1 13 48 53
129 1 13 53 58
130 1 13 58 19
131 1 14 19 24
132 1 14 24 29
133 1 14 29 34
134 1 14 34 39
135 1 14 39 44
136 1 14 44 49
137 1 14 49 54
138 1 14 54 59
139 1 14 59 20
140 1 15 20 25
141 1 15 25 30
142 1 15 30 35
143 1 15 35 40
144 1 15 40 45
145 1 15 45 50
146 1 15 50 55
147 1 15 55 60
148 1 15 60 21
149 1 16 21 26
150 1 16 26 31
151 1 16 31 36
152 1 16 36 41
153 1 16 41 46
154 1 16 46 51
155 1 16 51 56
156 1 16 56 22
157 1 17 22 27
158 1 17 27 32
159 1 17 32 37
160 1 17 37 42
161 1 17 42 47
162 1 17 47 52
163 1 17 52 57
164 1 17 57 23
165 1 18 23 28
166 1 18 28 33
167 1 18 33 38
168 1 18 38 43
169 1 18 43 48
170 1 18 48 53
171 1 18 53 58
172 1 18 58 24
173 1 19 24 29
174 1 19 29 34
175 1 19 34 39
176 1 19 39 44
177 1 19 44 49
178 1 19 49 54
179 1 19 54 59
180 1 19 59 25
181 1 20 25 30
182 1 20 30 35
183 1 20 35 40
184 1 20 40 45
185 1 20 45 50
186 1 20 50 55
187 1 20 55 60
188 1 20 60 26
189 1 21 26 31
190 1 21 31 36
191 1 21 36 41
192 1 21 41 46
193 1 21 46 51
194 1 21 51 56
195 1 21 56 27
196 1 22 27 32
197 1 22 32 37
198 1 22 37 42
199 1 22 42 47
200 1 22 47 52
201 1 22 52 57
202 1 22 57 28
203 1 23 28 33
204 1 23 33 38
205 1 23 38 43
206 1 23 43 48
207 1 23 48 53
208 1 23 53 58
209 1 23 58 29
210 1 24 29 34
211 1 24 34 39
212 1 24 39 44
213 1 24 44 49
214 1 24 49 54
215 1 24 54 59
216 1 24 59 30
217 1 25 30 35
218 1 25 35 40
219 1 25 40 45
220 1 25 45 50
221 1 25 50 55
222 1 25 55 60
223 1 25 60 31
224 1 26 31 36
225 1 26 36 41
226 1 26 41 46
227 1 26 46 51
228 1 26 51 56
229 1 26 56 32
230 1 27 32 37
231 1 27 37 42
232 1 27 42 47
233 1 27 47 52
234 1 27 52 57
235 1 27 57 33
236 1 28 33 38
237 1 28 38 43
238 1 28 43 48
239 1 28 48 53
240 1 28 53 58
241 1 28 58 34
242 1 29 34 39
243 1 29 39 44
244 1 29 44 49
245 1 29 49 54
246 1 29 54 35
247 1 30 35 40
248 1 30 40 45
249 1 30 45 50
250 1 30 50 55
251 1 30 55 60
252 1 30 60 36
253 1 31 36 41
254 1 31 41 46
255 1 31 46 51
256 1 31 51 56
257 1 31 56 37
258 1 32 37 42
259 1 32 42 47
260 1 32 47 52
261 1 32 52 57
262 1 32 57 38
263 1 33 38 43
264 1 33 43 48
265 1 33 48 53
266 1 33 53 58
267 1 33 58 39
268 1 34 39 44
269 1 34 44 49
270 1 34 49 54
271 1 34 54 59
272 1 34 59 40
273 1 35 40 45
274 1 35 45 50
275 1 35 50 55
276 1 35 55 60
277 1 35 60 41
278 1 36 41 46
279 1 36 46 51
280 1 36 51 56
281 1 36 56 42
282 1 37 42 47
283 1 37 47 52
284 1 37 52 57
285 1 37 57 43
286 1 38 43 48
287 1 38 48 53
288 1 38 53 58
289 1 38 58 44
290 1 39 44 49
291 1 39 49 54
292 1 39 54 59
293 1 39 59 45
294 1 40 45 55
295 1 40 55 60
296 1 40 60 46
297 1 41 46 51
298 1 41 51 56
299 1 41 56 47
300 1 42 47 52
301 1 42 52 57
302 1 42 57 48
303 1 43 48 53
304 1 43 53 58
305 1 43 58 49
306 1 44 49 54
307 1 44 54 59
308 1 44 59 50
309 1 45 50 55
310 1 45 55 60
311 1 45 60 51
312 1 46 51 56
313 1 46 56 52
314 1 47 52 57
315 1 47 57 53
316 1 48 53 58
317 1 48 58 54
318 1 49 54 59
319 1 49 59 55
320 1 50 55 60
321 1 50 60 56
322 1 51 56 57
323 1 52 57 58
324 1 53 58 59
325 1 54 59 60

Velocities

1 0.0 0.0 0.0
2 0.0 0.0 0.0
3 0.0 0.0 0.0
4 0.0 0.0 0.0
5 0.0 0.0 0.0
6 0.0 0.0 0.0
7 0.0 0.0 0.0
8 0.0 0.0 0.0
9 0.0 0.0 0.0
10 0.0 0.0 0.0
11 0.0 0.0 0.0
12 0.0 0.0 0.0
13 0.0 0.0 0.0
14 0.0 0.0 0.0
15 0.0 0.0 0.0
16 0.0 0.0 0.0
17 0.0 0.0 0.0
18 0.0 0.0 0.0
19 0.0 0.0 0.0
20 0.0 0.0 0.0
21 0.0 0.0 0.0
22 0.0 0.0 0.0
23 0.0 0.0 0.0
24 0.0 0.0 0.0
25 0.0 0.0 0.0
26 0.0 0.0 0.0
27 0.0 0.0 0.0
28 0.0 0.0 0.0
29 0.0 0.0 0.0
30 0.0 0.0 0.0
31 0.0 0.0 0.0
32 0.0 0.0 0.0
33 0.0 0.0 0.0
34 0.0 0.0 0.0
35 0.0 0.0 0.0
36 0.0 0.0 0.0
37 0.0 0.0 0.0
38 0.0 0.0 0.0
39 0.0 0.0 0.0
40 0.0 0.0 0.0
41 0.0 0.0 0.0
42 0.0 0.0 0.0
43 0.0 0.0 0.0
44 0.0 0.0 0.0
45 0.0 0.0 0.0
46 0.0 0.0 0.0
47 0.0 0.0 0.0
48 0.0 0.0 0.0
49 0.0 0.0 0.0
50 0.0 0.0 0.0
51 0.0 0.0 0.0
52 0.0 0.0 0.0
53 0.0 0.0 0.0
54 0.0 0.0 0.0
55 0.0 0.0 0.0
56 0.0 0.0 0.0
57 0.0 0.0 0.0
58 0.0 0.0 0.0
59 0.0 0.0 0.0
60 0.0 0.0 0.0
61 0.0 0.0 0.0
62 0.0 0.0 0.0
63 0.0 0.0 0.0
64 0.0 0.0 0.0
65 0.0 0.0 0.0
66 0.0 0.0 0.0
67 0.0 0.0 0.0
68 0.0 0.0 0.0
69 0.0 0.0 0.0
70 0.0 0.0 0.0
71 0.0 0.0 0.0
72 0.0 0.0 0.0
73 0.0 0.0 0.0
74 0.0 0.0 0.0
75 0.0 0.0 0.0
76 0.0 0.0 0.0
77 0.0 0.0 0.0
78 0.0 0.0 0.0
79 0.0 0.0 0.0
80 0.0 0.0 0.0
81 0.0 0.0 0.0
82 0.0 0.0 0.0
83 0.0 0.0 0.0
84 0.0 0.0 0.0
85 0.0 0.0 0.0
86 0.0 0.0 0.0
87 0.0 0.0 0.0
88 0.0 0.0 0.0
89 0.0 0.0 0.0
90 0.0 0.0 0.0
91 0.0 0.0 0.0
92 0.0 0.0 0.0
93 0.0 0.0 0.0
94 0.0 0.0 0.0
95 0.0 0.0 0.0
96 0.0 0.0 0.0
97 0.0 0.0 0.0
98 0.0 0.0 0.0
99 0.0 0.0 0.0
100 0.0 0.0 0.0
101 0.0 0.0 0.0
102 0.0 0.0 0.0
103 0.0 0.0 0.0
104 0.0 0.0 0.0
105 0.0 0.0 0.0
106 0.0 0.0 0.0
107 0.0 0.0 0.0
108 0.0 0.0 0.0
109 0.0 0.0 0.0
110 0.0 0.0 0.0
111 0.0 0.0 0.0
112 0.0 0.0 0.0
113 0.0 0.0 0.0
114 0.0 0.0 0.0
115 0.0 0.0 0.0
116 0.0 0.0 0.0
117 0.0 0.0 0.0
118 0.0 0.0 0.0
119 0.0 0.0 0.0
120 0.0 0.0 0.0
121 0.0 0.0 0.0
122 0.0 0.0 0.0
123 0.0 0.0 0.0
124 0.0 0.0 0.0
125 0.0 0.0 0.0
126 0.0 0.0 0.0
127 0.0 0.0 0.0
128 0.0 0.0 0.0
129 0.0 0.0 0.0
130 0.0 0.0 0.0
131 0.0 0.0 0.0
132 0.0 0.0 0.0
133 0.0 0.0 0.0
134 0.0 0.0 0.0
135 0.0 0.0 0.0
136 0.0 0.0 0.0
137 0.0 0.0 0.0
138 0.0 0.0 0.0
139 0.0 0.0 0.0
140 0.0 0.0 0.0
141 0.0 0.0 0.0
142 0.0 0.0 0.0
143 0.0 0.0 0.0
144 0.0 0.0 0.0
145 0.0 0.0 0.0
146 0.0 0.0 0.0
147 0.0 0.0 0.0
148 0.0 0.0 0.0
149 0.0 0.0 0.0
150 0.0 0.0 0.0
151 0.0 0.0 0.0
152 0.0 0.0 0.0
153 0.0 0.0 0.0
154 0.0 0.0 0.0
155 0.0 0.0 0.0
156 0.0 0.0 0.0
157 0.0 0.0 0.0
158 0.0 0.0 0.0
159 0.0 0.0 0.0
160 0.0 0.0 0.0
161 0.0 0.0 0.0
162 0.0 0.0 0.0
163 0.0 0.0 0.0
164 0.0 0.0 0.0
165 0.0 0.0 0.0
166 0.0 0.0 0.0
167 0.0 0.0 0.0
168 0.0 0.0 0.0
169 0.0 0.0 0.0
170 0.0 0.0 0.0
171 0.0 0.0 0.0
172 0.0 0.0 0.0
173 0.0 0.0 0.0
174 0.0 0.0 0.0
175 0.0 0.0 0.0
176 0.0 0.0 0.0
177 0.0 0.0 0.0
178 0.0 0.0 0.0
179 0.0 0.0 0.0
180 0.0 0.0 0.0
181 0.0 0.0 0.0
182 0.0 0.0 0.0
183 0.0 0.0 0.0
184 0.0 0.0 0.0
185 0.0 0.0 0.0
186 0.0 0.0 0.0
187 0.0 0.0 0.0
188 0.0 0.0 0.0
189 0.0 0.0 0.0
190 0.0 0.0 0.0
191 0.0 0.0 0.0
192 0.0 0.0 0.0
193 0.0 0.0 0.0
194 0.0 0.0 0.0
195 0.0 0.0 0.0
196 0.0 0.0 0.0
197 0.0 0.0 0.0
198 0.0 0.0 0.0
199 0.0 0.0 0.0
200 0.0 0.0 0.0
