LAMMPS data file for Calcium Silicate Hydrate (C-S-H)

20 atoms
4 atom types
0 bonds
0 angles

-20.0 20.0 xlo xhi
-5.0 5.0 ylo yhi
-5.0 5.0 zlo zhi

Masses

1 40.078
2 28.085
3 15.999
4 1.008

Atoms # full

1 1 3 -0.8 -16.91324 2.25566 -2.89393
2 1 2 4.0 -15.57040 -1.41210 -3.18342
3 1 3 -0.8 18.86502 -3.23867 -1.26004
4 1 1 2.0 -18.50685 -1.38067 -0.17864
5 1 3 -0.8 -19.13194 -2.78545 -3.69790
6 1 2 4.0 -19.27872 -2.89326 -3.25459
7 1 1 2.0 14.29385 3.47103 1.62939
8 1 3 -0.8 -11.07765 -1.66144 -4.06900
9 1 3 -0.8 17.95505 -4.83800 -0.47257
10 1 3 -0.8 5.18854 0.74676 -4.19484
11 1 4 0.4 -0.15547 -3.98946 -3.68669
12 1 3 -0.8 16.22758 -3.79485 -4.16538
13 1 2 4.0 -7.58595 -4.24720 -1.01384
14 1 3 -0.8 17.09673 -1.39583 4.17733
15 1 1 2.0 -6.45092 -3.97709 3.68902
16 1 3 -0.8 -16.54494 -0.50473 4.54860
17 1 3 -0.8 -19.12537 -1.89768 -4.83333
18 1 3 -0.8 2.30555 -2.09598 4.00050
19 1 2 4.0 -7.57990 -3.85901 -3.97522
20 1 2 4.0 9.22757 1.24917 -4.62014

Velocities

1 0.0 0.0 0.0
2 0.0 0.0 0.0
3 0.0 0.0 0.0
4 0.0 0.0 0.0
5 0.0 0.0 0.0
6 0.0 0.0 0.0
7 0.0 0.0 0.0
8 0.0 0.0 0.0
9 0.0 0.0 0.0
10 0.0 0.0 0.0
11 0.0 0.0 0.0
12 0.0 0.0 0.0
13 0.0 0.0 0.0
14 0.0 0.0 0.0
15 0.0 0.0 0.0
16 0.0 0.0 0.0
17 0.0 0.0 0.0
18 0.0 0.0 0.0
19 0.0 0.0 0.0
20 0.0 0.0 0.0
