Methane molecule

5 atoms
4 bonds
0 angles
0 dihedrals
0 impropers

2 atom types
1 bond types

-1.5  3.0  xlo xhi
-2.0  2.0  ylo yhi
-1.0  2.0  zlo zhi

Masses

1 12.011
2 1.008

Bond Coeffs

1 400.0 1.09

Atoms

1 1 1 -0.834  0.000000  -0.000000   0.000000
2 1 2  0.209 -1.487729   0.191757  -0.000003
3 1 2  0.209  0.228507   1.362647   0.000000
4 1 2  0.209  1.463553   -0.064876  0.000003
5 1 2  0.209  -0.108325  -1.171606  0.000000

Bonds

1 1 1 2
2 1 1 3
3 1 1 4
4 1 1 5