Methane molecule

5 atoms
4 bonds
6 angles          
0 dihedrals
0 impropers

2 atom types
1 bond types
1 angle types     

-5.5  5.0  xlo xhi
-5.0  5.0  ylo yhi
-5.0  5.0  zlo zhi

Masses

1 12.011   
2 1.008    

Bond Coeffs

1 400.0 1.09   

Angle Coeffs

1 60.0 109.5    

Atoms

1 1 1 -0.834  0.000000  -0.000000   0.000000
2 1 2  0.209  0.000000   0.890000  -0.62930
3 1 2  0.209 -0.009097  -0.000000  -0.62930
4 1 2  0.209 -0.890000   1.60884    0.62930
5 1 2  0.209  0.890000  -0.000000   0.62930

Bonds

1 1 1 2
2 1 1 3
3 1 1 4
4 1 1 5

Angles

1 1 1 2 3  
2 1 1 2 4
3 1 1 2 5
4 1 1 3 4
5 1 1 3 5
6 1 1 4 5