5
 Atoms. Timestep: 0
C 0.93516 0.02879 0.07048
H 2.02736 0.02879 0.07048
H 0.57109 0.54059 -0.82306
H 0.57109 0.54672 0.96048
H 0.57109 -1.00094 0.07401
5
 Atoms. Timestep: 10
C 1.27529 -0.321004 0.0866795
H 2.98915 0.131516 0.0675421
H 0.145119 0.921211 -0.692742
H 0.155508 0.929141 0.842126
H 0.110724 -1.51691 0.0487843
5
 Atoms. Timestep: 20
C 1.41582 -0.408142 0.101776
H -1.30775 0.163419 0.0777775
H 0.0804529 0.819027 -0.681058
H 0.171681 0.993639 0.826597
H -0.184412 -1.42399 0.0272975
5
 Atoms. Timestep: 30
C 1.54209 -0.743623 0.153773
H -1.39444 0.66848 0.623934
H -0.0550333 0.316472 -0.873523
H 0.860002 1.39863 0.716338
H -0.77683 -1.49601 -0.268132
5
 Atoms. Timestep: 40
C 1.84292 -0.793069 -0.422034
H 2.84699 0.92115 0.934309
H -0.182033 0.21221 -0.550528
H 0.817114 1.57733 0.954911
H -0.649202 -1.77367 -0.564268
5
 Atoms. Timestep: 50
C 1.83542 -0.771701 -0.528984
H 2.84263 0.876365 0.969723
H -0.173222 0.22397 -0.529075
H 0.82666 1.58167 0.970543
H -0.65569 -1.76635 -0.529817
5
 Atoms. Timestep: 54
C 1.8351 -0.771268 -0.529709
H 2.84337 0.875926 0.970534
H -0.17356 0.224037 -0.529345
H 0.826967 1.58166 0.970458
H -0.656095 -1.76641 -0.529549
5
 Atoms. Timestep: 60
C 1.82988 -0.760625 -0.52378
H 2.75412 0.735172 0.830072
H -0.0829487 0.235963 -0.452381
H 0.921537 1.52671 0.867102
H -0.689743 -1.70945 -0.43334
5
 Atoms. Timestep: 70
C 1.81978 -0.749788 -0.520064
H 2.72697 0.535079 0.673327
H -0.000852777 0.288786 -0.374284
H 1.01861 1.49944 0.753919
H -0.721452 -1.66403 -0.285787
5
 Atoms. Timestep: 80
C 1.801 -0.759876 -0.53716
H 2.92932 0.508417 0.765495
H -0.0465183 0.343194 -0.426476
H 1.07773 1.59747 0.777562
H -0.713511 -1.6696 -0.145699
5
 Atoms. Timestep: 90
C 1.7797 -0.777096 -0.566584
H 3.12608 0.571306 1.04311
H -0.0814886 0.387511 -0.615731
H 1.1467 1.69299 0.903934
H -0.690452 -1.66715 -0.00982023
5
 Atoms. Timestep: 100
C 1.76354 -0.790857 -0.596991
H 3.06912 0.665497 1.15899
H 0.085149 0.409372 -0.651038
H 1.20677 1.69442 1.05394
H -0.667567 -1.62066 0.121927
5
 Atoms. Timestep: 110
C 1.76455 -0.805475 -0.620137
H 2.8772 0.752941 1.11555
H 0.240492 0.503739 -0.513571
H 1.20215 1.59998 1.11271
H -0.638481 -1.53384 0.244926
5
 Atoms. Timestep: 120
C 1.78551 -0.82723 -0.636279
H 2.89382 0.738261 1.05856
H 0.114086 0.695987 -0.32682
H 1.0328 1.55021 1.05971
H -0.609098 -1.40242 0.360512
5
 Atoms. Timestep: 130
C 1.8108 -0.848647 -0.648578
H 2.98759 0.688169 1.01829
H -0.184305 0.751102 -0.302208
H 0.948855 1.59876 1.1113
H -0.621833 -1.20079 0.471123
5
 Atoms. Timestep: 140
C 1.83732 -0.864556 -0.655463
H 2.88668 0.679031 1.1013
H -0.377072 0.745615 -0.504227
H 0.960019 1.61533 1.19742
H -0.655332 -1.01317 0.586044
5
 Atoms. Timestep: 150
C 1.86499 -0.873941 -0.652896
H 2.57103 0.763935 1.0829
H -0.365237 0.761389 -0.607022
H 0.924942 1.55452 1.15984
H -0.646205 -0.941206 0.714243
