Methane molecule

5 atoms
0 bonds
0 angles
0 dihedrals
0 impropers

2 atom types

-1.5  3.0  xlo xhi
-2.0  2.0  ylo yhi
-1.0  2.0  zlo zhi

Masses

1  12.011   # C
2  1.008    # H

Atoms

1  1  1  -0.834  0.93516   0.02879   0.07048
2  1  2   0.209  2.02736   0.02879   0.07048
3  1  2   0.209  0.57109   0.54059  -0.82306
4  1  2   0.209  0.57109   0.54672   0.96048
5  1  2   0.209  0.57109  -1.00094   0.07401
